ITEM: TIMESTEP
0
ITEM: NUMBER OF ATOMS
540
ITEM: BOX BOUNDS xy xz yz pp pp pp
-8.7843511354199997e+00 1.7533200000000001e+01 1.4984900699040000e-15
0.0000000000000000e+00 2.4472200000000004e+01 -8.7843511354199997e+00
0.0000000000000000e+00 2.0724798000000000e+01 1.9162018545329998e-15
ITEM: ATOMS id type xs ys zs
1 1 0.174233 0.0612333 0.1205
2 1 0.1591 0.2721 0.212833
3 1 0.174233 0.105433 0.287167
4 1 0.1591 0.2279 0.0461667
5 1 0.0133667 0.0142 0.258733
6 1 0.319967 0.319133 0.0746
7 1 0.0133667 0.152467 0.0920667
8 1 0.319967 0.180867 0.241267
9 2 0.259033 0.101433 0.2358
10 2 0.0743 0.2319 0.0975333
11 2 0.259033 0.0652333 0.0691333
12 2 0.0743 0.2681 0.2642
13 2 0.0893333 0.00943333 0.1702
14 2 0.244 0.3239 0.163133
15 2 0.0893333 0.157233 0.00353333
16 2 0.244 0.1761 0.3298
17 2 0.0783667 0.0159 0.0424
18 2 0.254967 0.317433 0.290933
19 2 0.0783667 0.150767 0.209067
20 2 0.254967 0.182567 0.124267
181 1 0.174233 0.0612333 0.453833
182 1 0.1591 0.2721 0.546167
183 1 0.174233 0.105433 0.6205
184 1 0.1591 0.2279 0.3795
185 1 0.0133667 0.0142 0.592067
186 1 0.319967 0.319133 0.407933
187 1 0.0133667 0.152467 0.4254
188 1 0.319967 0.180867 0.5746
189 2 0.259033 0.101433 0.569133
190 2 0.0743 0.2319 0.430867
191 2 0.259033 0.0652333 0.402467
192 2 0.0743 0.2681 0.597533
193 2 0.0893333 0.00943333 0.503533
194 2 0.244 0.3239 0.496467
195 2 0.0893333 0.157233 0.336867
196 2 0.244 0.1761 0.663133
197 2 0.0783667 0.0159 0.375733
198 2 0.254967 0.317433 0.624267
199 2 0.0783667 0.150767 0.5424
200 2 0.254967 0.182567 0.4576
361 1 0.174233 0.0612333 0.787167
362 1 0.1591 0.2721 0.8795
363 1 0.174233 0.105433 0.953833
364 1 0.1591 0.2279 0.712833
365 1 0.0133667 0.0142 0.9254
366 1 0.319967 0.319133 0.741267
367 1 0.0133667 0.152467 0.758733
368 1 0.319967 0.180867 0.907933
369 2 0.259033 0.101433 0.902467
370 2 0.0743 0.2319 0.7642
371 2 0.259033 0.0652333 0.7358
372 2 0.0743 0.2681 0.930867
373 2 0.0893333 0.00943333 0.836867
374 2 0.244 0.3239 0.8298
375 2 0.0893333 0.157233 0.6702
376 2 0.244 0.1761 0.996467
377 2 0.0783667 0.0159 0.709067
378 2 0.254967 0.317433 0.9576
379 2 0.0783667 0.150767 0.875733
380 2 0.254967 0.182567 0.790933
61 1 0.174233 0.394567 0.1205
62 1 0.1591 0.605433 0.212833
63 1 0.174233 0.438767 0.287167
64 1 0.1591 0.561233 0.0461667
65 1 0.0133667 0.347533 0.258733
66 1 0.319967 0.652467 0.0746
67 1 0.0133667 0.4858 0.0920667
68 1 0.319967 0.5142 0.241267
69 2 0.259033 0.434767 0.2358
70 2 0.0743 0.565233 0.0975333
71 2 0.259033 0.398567 0.0691333
72 2 0.0743 0.601433 0.2642
73 2 0.0893333 0.342767 0.1702
74 2 0.244 0.657233 0.163133
75 2 0.0893333 0.490567 0.00353333
76 2 0.244 0.509433 0.3298
77 2 0.0783667 0.349233 0.0424
78 2 0.254967 0.650767 0.290933
79 2 0.0783667 0.4841 0.209067
80 2 0.254967 0.5159 0.124267
241 1 0.174233 0.394567 0.453833
242 1 0.1591 0.605433 0.546167
243 1 0.174233 0.438767 0.6205
244 1 0.1591 0.561233 0.3795
245 1 0.0133667 0.347533 0.592067
246 1 0.319967 0.652467 0.407933
247 1 0.0133667 0.4858 0.4254
248 1 0.319967 0.5142 0.5746
249 2 0.259033 0.434767 0.569133
250 2 0.0743 0.565233 0.430867
251 2 0.259033 0.398567 0.402467
252 2 0.0743 0.601433 0.597533
253 2 0.0893333 0.342767 0.503533
254 2 0.244 0.657233 0.496467
255 2 0.0893333 0.490567 0.336867
256 2 0.244 0.509433 0.663133
257 2 0.0783667 0.349233 0.375733
258 2 0.254967 0.650767 0.624267
259 2 0.0783667 0.4841 0.5424
260 2 0.254967 0.5159 0.4576
421 1 0.174233 0.394567 0.787167
422 1 0.1591 0.605433 0.8795
423 1 0.174233 0.438767 0.953833
424 1 0.1591 0.561233 0.712833
425 1 0.0133667 0.347533 0.9254
426 1 0.319967 0.652467 0.741267
427 1 0.0133667 0.4858 0.758733
428 1 0.319967 0.5142 0.907933
429 2 0.259033 0.434767 0.902467
430 2 0.0743 0.565233 0.7642
431 2 0.259033 0.398567 0.7358
432 2 0.0743 0.601433 0.930867
433 2 0.0893333 0.342767 0.836867
434 2 0.244 0.657233 0.8298
435 2 0.0893333 0.490567 0.6702
436 2 0.244 0.509433 0.996467
437 2 0.0783667 0.349233 0.709067
438 2 0.254967 0.650767 0.9576
439 2 0.0783667 0.4841 0.875733
440 2 0.254967 0.5159 0.790933
121 1 0.174233 0.7279 0.1205
122 1 0.1591 0.938767 0.212833
123 1 0.174233 0.7721 0.287167
124 1 0.1591 0.894567 0.0461667
125 1 0.0133667 0.680867 0.258733
126 1 0.319967 0.9858 0.0746
127 1 0.0133667 0.819133 0.0920667
128 1 0.319967 0.847533 0.241267
129 2 0.259033 0.7681 0.2358
130 2 0.0743 0.898567 0.0975333
131 2 0.259033 0.7319 0.0691333
132 2 0.0743 0.934767 0.2642
133 2 0.0893333 0.6761 0.1702
134 2 0.244 0.990567 0.163133
135 2 0.0893333 0.8239 0.00353333
136 2 0.244 0.842767 0.3298
137 2 0.0783667 0.682567 0.0424
138 2 0.254967 0.9841 0.290933
139 2 0.0783667 0.817433 0.209067
140 2 0.254967 0.849233 0.124267
301 1 0.174233 0.7279 0.453833
302 1 0.1591 0.938767 0.546167
303 1 0.174233 0.7721 0.6205
304 1 0.1591 0.894567 0.3795
305 1 0.0133667 0.680867 0.592067
306 1 0.319967 0.9858 0.407933
307 1 0.0133667 0.819133 0.4254
308 1 0.319967 0.847533 0.5746
309 2 0.259033 0.7681 0.569133
310 2 0.0743 0.898567 0.430867
311 2 0.259033 0.7319 0.402467
312 2 0.0743 0.934767 0.597533
313 2 0.0893333 0.6761 0.503533
314 2 0.244 0.990567 0.496467
315 2 0.0893333 0.8239 0.336867
316 2 0.244 0.842767 0.663133
317 2 0.0783667 0.682567 0.375733
318 2 0.254967 0.9841 0.624267
319 2 0.0783667 0.817433 0.5424
320 2 0.254967 0.849233 0.4576
481 1 0.174233 0.7279 0.787167
482 1 0.1591 0.938767 0.8795
483 1 0.174233 0.7721 0.953833
484 1 0.1591 0.894567 0.712833
485 1 0.0133667 0.680867 0.9254
486 1 0.319967 0.9858 0.741267
487 1 0.0133667 0.819133 0.758733
488 1 0.319967 0.847533 0.907933
489 2 0.259033 0.7681 0.902467
490 2 0.0743 0.898567 0.7642
491 2 0.259033 0.7319 0.7358
492 2 0.0743 0.934767 0.930867
493 2 0.0893333 0.6761 0.836867
494 2 0.244 0.990567 0.8298
495 2 0.0893333 0.8239 0.6702
496 2 0.244 0.842767 0.996467
497 2 0.0783667 0.682567 0.709067
498 2 0.254967 0.9841 0.9576
499 2 0.0783667 0.817433 0.875733
500 2 0.254967 0.849233 0.790933
21 1 0.507567 0.0612333 0.1205
22 1 0.492433 0.2721 0.212833
23 1 0.507567 0.105433 0.287167
24 1 0.492433 0.2279 0.0461667
25 1 0.3467 0.0142 0.258733
26 1 0.6533 0.319133 0.0746
27 1 0.3467 0.152467 0.0920667
28 1 0.6533 0.180867 0.241267
29 2 0.592367 0.101433 0.2358
30 2 0.407633 0.2319 0.0975333
31 2 0.592367 0.0652333 0.0691333
32 2 0.407633 0.2681 0.2642
33 2 0.422667 0.00943333 0.1702
34 2 0.577333 0.3239 0.163133
35 2 0.422667 0.157233 0.00353333
36 2 0.577333 0.1761 0.3298
37 2 0.4117 0.0159 0.0424
38 2 0.5883 0.317433 0.290933
39 2 0.4117 0.150767 0.209067
40 2 0.5883 0.182567 0.124267
201 1 0.507567 0.0612333 0.453833
202 1 0.492433 0.2721 0.546167
203 1 0.507567 0.105433 0.6205
204 1 0.492433 0.2279 0.3795
205 1 0.3467 0.0142 0.592067
206 1 0.6533 0.319133 0.407933
207 1 0.3467 0.152467 0.4254
208 1 0.6533 0.180867 0.5746
209 2 0.592367 0.101433 0.569133
210 2 0.407633 0.2319 0.430867
211 2 0.592367 0.0652333 0.402467
212 2 0.407633 0.2681 0.597533
213 2 0.422667 0.00943333 0.503533
214 2 0.577333 0.3239 0.496467
215 2 0.422667 0.157233 0.336867
216 2 0.577333 0.1761 0.663133
217 2 0.4117 0.0159 0.375733
218 2 0.5883 0.317433 0.624267
219 2 0.4117 0.150767 0.5424
220 2 0.5883 0.182567 0.4576
381 1 0.507567 0.0612333 0.787167
382 1 0.492433 0.2721 0.8795
383 1 0.507567 0.105433 0.953833
384 1 0.492433 0.2279 0.712833
385 1 0.3467 0.0142 0.9254
386 1 0.6533 0.319133 0.741267
387 1 0.3467 0.152467 0.758733
388 1 0.6533 0.180867 0.907933
389 2 0.592367 0.101433 0.902467
390 2 0.407633 0.2319 0.7642
391 2 0.592367 0.0652333 0.7358
392 2 0.407633 0.2681 0.930867
393 2 0.422667 0.00943333 0.836867
394 2 0.577333 0.3239 0.8298
395 2 0.422667 0.157233 0.6702
396 2 0.577333 0.1761 0.996467
397 2 0.4117 0.0159 0.709067
398 2 0.5883 0.317433 0.9576
399 2 0.4117 0.150767 0.875733
400 2 0.5883 0.182567 0.790933
81 1 0.507567 0.394567 0.1205
82 1 0.492433 0.605433 0.212833
83 1 0.507567 0.438767 0.287167
84 1 0.492433 0.561233 0.0461667
85 1 0.3467 0.347533 0.258733
86 1 0.6533 0.652467 0.0746
87 1 0.3467 0.4858 0.0920667
88 1 0.6533 0.5142 0.241267
89 2 0.592367 0.434767 0.2358
90 2 0.407633 0.565233 0.0975333
91 2 0.592367 0.398567 0.0691333
92 2 0.407633 0.601433 0.2642
93 2 0.422667 0.342767 0.1702
94 2 0.577333 0.657233 0.163133
95 2 0.422667 0.490567 0.00353333
96 2 0.577333 0.509433 0.3298
97 2 0.4117 0.349233 0.0424
98 2 0.5883 0.650767 0.290933
99 2 0.4117 0.4841 0.209067
100 2 0.5883 0.5159 0.124267
261 1 0.507567 0.394567 0.453833
262 1 0.492433 0.605433 0.546167
263 1 0.507567 0.438767 0.6205
264 1 0.492433 0.561233 0.3795
265 1 0.3467 0.347533 0.592067
266 1 0.6533 0.652467 0.407933
267 1 0.3467 0.4858 0.4254
268 1 0.6533 0.5142 0.5746
269 2 0.592367 0.434767 0.569133
270 2 0.407633 0.565233 0.430867
271 2 0.592367 0.398567 0.402467
272 2 0.407633 0.601433 0.597533
273 2 0.422667 0.342767 0.503533
274 2 0.577333 0.657233 0.496467
275 2 0.422667 0.490567 0.336867
276 2 0.577333 0.509433 0.663133
277 2 0.4117 0.349233 0.375733
278 2 0.5883 0.650767 0.624267
279 2 0.4117 0.4841 0.5424
280 2 0.5883 0.5159 0.4576
441 1 0.507567 0.394567 0.787167
442 1 0.492433 0.605433 0.8795
443 1 0.507567 0.438767 0.953833
444 1 0.492433 0.561233 0.712833
445 1 0.3467 0.347533 0.9254
446 1 0.6533 0.652467 0.741267
447 1 0.3467 0.4858 0.758733
448 1 0.6533 0.5142 0.907933
449 2 0.592367 0.434767 0.902467
450 2 0.407633 0.565233 0.7642
451 2 0.592367 0.398567 0.7358
452 2 0.407633 0.601433 0.930867
453 2 0.422667 0.342767 0.836867
454 2 0.577333 0.657233 0.8298
455 2 0.422667 0.490567 0.6702
456 2 0.577333 0.509433 0.996467
457 2 0.4117 0.349233 0.709067
458 2 0.5883 0.650767 0.9576
459 2 0.4117 0.4841 0.875733
460 2 0.5883 0.5159 0.790933
141 1 0.507567 0.7279 0.1205
142 1 0.492433 0.938767 0.212833
143 1 0.507567 0.7721 0.287167
144 1 0.492433 0.894567 0.0461667
145 1 0.3467 0.680867 0.258733
146 1 0.6533 0.9858 0.0746
147 1 0.3467 0.819133 0.0920667
148 1 0.6533 0.847533 0.241267
149 2 0.592367 0.7681 0.2358
150 2 0.407633 0.898567 0.0975333
151 2 0.592367 0.7319 0.0691333
152 2 0.407633 0.934767 0.2642
153 2 0.422667 0.6761 0.1702
154 2 0.577333 0.990567 0.163133
155 2 0.422667 0.8239 0.00353333
156 2 0.577333 0.842767 0.3298
157 2 0.4117 0.682567 0.0424
158 2 0.5883 0.9841 0.290933
159 2 0.4117 0.817433 0.209067
160 2 0.5883 0.849233 0.124267
321 1 0.507567 0.7279 0.453833
322 1 0.492433 0.938767 0.546167
323 1 0.507567 0.7721 0.6205
324 1 0.492433 0.894567 0.3795
325 1 0.3467 0.680867 0.592067
326 1 0.6533 0.9858 0.407933
327 1 0.3467 0.819133 0.4254
328 1 0.6533 0.847533 0.5746
329 2 0.592367 0.7681 0.569133
330 2 0.407633 0.898567 0.430867
331 2 0.592367 0.7319 0.402467
332 2 0.407633 0.934767 0.597533
333 2 0.422667 0.6761 0.503533
334 2 0.577333 0.990567 0.496467
335 2 0.422667 0.8239 0.336867
336 2 0.577333 0.842767 0.663133
337 2 0.4117 0.682567 0.375733
338 2 0.5883 0.9841 0.624267
339 2 0.4117 0.817433 0.5424
340 2 0.5883 0.849233 0.4576
501 1 0.507567 0.7279 0.787167
502 1 0.492433 0.938767 0.8795
503 1 0.507567 0.7721 0.953833
504 1 0.492433 0.894567 0.712833
505 1 0.3467 0.680867 0.9254
506 1 0.6533 0.9858 0.741267
507 1 0.3467 0.819133 0.758733
508 1 0.6533 0.847533 0.907933
509 2 0.592367 0.7681 0.902467
510 2 0.407633 0.898567 0.7642
511 2 0.592367 0.7319 0.7358
512 2 0.407633 0.934767 0.930867
513 2 0.422667 0.6761 0.836867
514 2 0.577333 0.990567 0.8298
515 2 0.422667 0.8239 0.6702
516 2 0.577333 0.842767 0.996467
517 2 0.4117 0.682567 0.709067
518 2 0.5883 0.9841 0.9576
519 2 0.4117 0.817433 0.875733
520 2 0.5883 0.849233 0.790933
41 1 0.8409 0.0612333 0.1205
42 1 0.825767 0.2721 0.212833
43 1 0.8409 0.105433 0.287167
44 1 0.825767 0.2279 0.0461667
45 1 0.680033 0.0142 0.258733
46 1 0.986633 0.319133 0.0746
47 1 0.680033 0.152467 0.0920667
48 1 0.986633 0.180867 0.241267
49 2 0.9257 0.101433 0.2358
50 2 0.740967 0.2319 0.0975333
51 2 0.9257 0.0652333 0.0691333
52 2 0.740967 0.2681 0.2642
53 2 0.756 0.00943333 0.1702
54 2 0.910667 0.3239 0.163133
55 2 0.756 0.157233 0.00353333
56 2 0.910667 0.1761 0.3298
57 2 0.745033 0.0159 0.0424
58 2 0.921633 0.317433 0.290933
59 2 0.745033 0.150767 0.209067
60 2 0.921633 0.182567 0.124267
221 1 0.8409 0.0612333 0.453833
222 1 0.825767 0.2721 0.546167
223 1 0.8409 0.105433 0.6205
224 1 0.825767 0.2279 0.3795
225 1 0.680033 0.0142 0.592067
226 1 0.986633 0.319133 0.407933
227 1 0.680033 0.152467 0.4254
228 1 0.986633 0.180867 0.5746
229 2 0.9257 0.101433 0.569133
230 2 0.740967 0.2319 0.430867
231 2 0.9257 0.0652333 0.402467
232 2 0.740967 0.2681 0.597533
233 2 0.756 0.00943333 0.503533
234 2 0.910667 0.3239 0.496467
235 2 0.756 0.157233 0.336867
236 2 0.910667 0.1761 0.663133
237 2 0.745033 0.0159 0.375733
238 2 0.921633 0.317433 0.624267
239 2 0.745033 0.150767 0.5424
240 2 0.921633 0.182567 0.4576
401 1 0.8409 0.0612333 0.787167
402 1 0.825767 0.2721 0.8795
403 1 0.8409 0.105433 0.953833
404 1 0.825767 0.2279 0.712833
405 1 0.680033 0.0142 0.9254
406 1 0.986633 0.319133 0.741267
407 1 0.680033 0.152467 0.758733
408 1 0.986633 0.180867 0.907933
409 2 0.9257 0.101433 0.902467
410 2 0.740967 0.2319 0.7642
411 2 0.9257 0.0652333 0.7358
412 2 0.740967 0.2681 0.930867
413 2 0.756 0.00943333 0.836867
414 2 0.910667 0.3239 0.8298
415 2 0.756 0.157233 0.6702
416 2 0.910667 0.1761 0.996467
417 2 0.745033 0.0159 0.709067
418 2 0.921633 0.317433 0.9576
419 2 0.745033 0.150767 0.875733
420 2 0.921633 0.182567 0.790933
101 1 0.8409 0.394567 0.1205
102 1 0.825767 0.605433 0.212833
103 1 0.8409 0.438767 0.287167
104 1 0.825767 0.561233 0.0461667
105 1 0.680033 0.347533 0.258733
106 1 0.986633 0.652467 0.0746
107 1 0.680033 0.4858 0.0920667
108 1 0.986633 0.5142 0.241267
109 2 0.9257 0.434767 0.2358
110 2 0.740967 0.565233 0.0975333
111 2 0.9257 0.398567 0.0691333
112 2 0.740967 0.601433 0.2642
113 2 0.756 0.342767 0.1702
114 2 0.910667 0.657233 0.163133
115 2 0.756 0.490567 0.00353333
116 2 0.910667 0.509433 0.3298
117 2 0.745033 0.349233 0.0424
118 2 0.921633 0.650767 0.290933
119 2 0.745033 0.4841 0.209067
120 2 0.921633 0.5159 0.124267
281 1 0.8409 0.394567 0.453833
282 1 0.825767 0.605433 0.546167
283 1 0.8409 0.438767 0.6205
284 1 0.825767 0.561233 0.3795
285 1 0.680033 0.347533 0.592067
286 1 0.986633 0.652467 0.407933
287 1 0.680033 0.4858 0.4254
288 1 0.986633 0.5142 0.5746
289 2 0.9257 0.434767 0.569133
290 2 0.740967 0.565233 0.430867
291 2 0.9257 0.398567 0.402467
292 2 0.740967 0.601433 0.597533
293 2 0.756 0.342767 0.503533
294 2 0.910667 0.657233 0.496467
295 2 0.756 0.490567 0.336867
296 2 0.910667 0.509433 0.663133
297 2 0.745033 0.349233 0.375733
298 2 0.921633 0.650767 0.624267
299 2 0.745033 0.4841 0.5424
300 2 0.921633 0.5159 0.4576
461 1 0.8409 0.394567 0.787167
462 1 0.825767 0.605433 0.8795
463 1 0.8409 0.438767 0.953833
464 1 0.825767 0.561233 0.712833
465 1 0.680033 0.347533 0.9254
466 1 0.986633 0.652467 0.741267
467 1 0.680033 0.4858 0.758733
468 1 0.986633 0.5142 0.907933
469 2 0.9257 0.434767 0.902467
470 2 0.740967 0.565233 0.7642
471 2 0.9257 0.398567 0.7358
472 2 0.740967 0.601433 0.930867
473 2 0.756 0.342767 0.836867
474 2 0.910667 0.657233 0.8298
475 2 0.756 0.490567 0.6702
476 2 0.910667 0.509433 0.996467
477 2 0.745033 0.349233 0.709067
478 2 0.921633 0.650767 0.9576
479 2 0.745033 0.4841 0.875733
480 2 0.921633 0.5159 0.790933
161 1 0.8409 0.7279 0.1205
162 1 0.825767 0.938767 0.212833
163 1 0.8409 0.7721 0.287167
164 1 0.825767 0.894567 0.0461667
165 1 0.680033 0.680867 0.258733
166 1 0.986633 0.9858 0.0746
167 1 0.680033 0.819133 0.0920667
168 1 0.986633 0.847533 0.241267
169 2 0.9257 0.7681 0.2358
170 2 0.740967 0.898567 0.0975333
171 2 0.9257 0.7319 0.0691333
172 2 0.740967 0.934767 0.2642
173 2 0.756 0.6761 0.1702
174 2 0.910667 0.990567 0.163133
175 2 0.756 0.8239 0.00353333
176 2 0.910667 0.842767 0.3298
177 2 0.745033 0.682567 0.0424
178 2 0.921633 0.9841 0.290933
179 2 0.745033 0.817433 0.209067
180 2 0.921633 0.849233 0.124267
341 1 0.8409 0.7279 0.453833
342 1 0.825767 0.938767 0.546167
343 1 0.8409 0.7721 0.6205
344 1 0.825767 0.894567 0.3795
345 1 0.680033 0.680867 0.592067
346 1 0.986633 0.9858 0.407933
347 1 0.680033 0.819133 0.4254
348 1 0.986633 0.847533 0.5746
349 2 0.9257 0.7681 0.569133
350 2 0.740967 0.898567 0.430867
351 2 0.9257 0.7319 0.402467
352 2 0.740967 0.934767 0.597533
353 2 0.756 0.6761 0.503533
354 2 0.910667 0.990567 0.496467
355 2 0.756 0.8239 0.336867
356 2 0.910667 0.842767 0.663133
357 2 0.745033 0.682567 0.375733
358 2 0.921633 0.9841 0.624267
359 2 0.745033 0.817433 0.5424
360 2 0.921633 0.849233 0.4576
521 1 0.8409 0.7279 0.787167
522 1 0.825767 0.938767 0.8795
523 1 0.8409 0.7721 0.953833
524 1 0.825767 0.894567 0.712833
525 1 0.680033 0.680867 0.9254
526 1 0.986633 0.9858 0.741267
527 1 0.680033 0.819133 0.758733
528 1 0.986633 0.847533 0.907933
529 2 0.9257 0.7681 0.902467
530 2 0.740967 0.898567 0.7642
531 2 0.9257 0.7319 0.7358
532 2 0.740967 0.934767 0.930867
533 2 0.756 0.6761 0.836867
534 2 0.910667 0.990567 0.8298
535 2 0.756 0.8239 0.6702
536 2 0.910667 0.842767 0.996467
537 2 0.745033 0.682567 0.709067
538 2 0.921633 0.9841 0.9576
539 2 0.745033 0.817433 0.875733
540 2 0.921633 0.849233 0.790933
ITEM: TIMESTEP
100
ITEM: NUMBER OF ATOMS
540
ITEM: BOX BOUNDS xy xz yz pp pp pp
-9.6467781860313391e+00 1.7963977393404729e+01 1.5721235933174152e-15
-6.0126334764208522e-01 2.5073463347642097e+01 -9.2160007926266445e+00
-5.0919252967390172e-01 2.1233990529673886e+01 2.0103610998656211e-15
ITEM: ATOMS id type xs ys zs
1 1 0.166808 0.0740806 0.122561
2 1 0.166748 0.256728 0.211478
3 1 0.166727 0.0922503 0.289423
4 1 0.167121 0.243193 0.0415855
5 1 0.0192254 0.0237403 0.252955
6 1 0.313026 0.307167 0.0789573
7 1 0.0200064 0.140954 0.0864447
8 1 0.312182 0.192963 0.243762
9 2 0.26417 0.103198 0.23509
10 2 0.0734053 0.23113 0.0975461
11 2 0.262993 0.063569 0.0678021
12 2 0.0716394 0.271541 0.267781
13 2 0.076263 0.046132 0.172059
14 2 0.255291 0.287573 0.161367
15 2 0.0793593 0.124103 0.00511817
16 2 0.259619 0.21029 0.328816
17 2 0.116165 -0.00235605 0.0417429
18 2 0.221212 0.336672 0.288563
19 2 0.114815 0.168078 0.208516
20 2 0.21258 0.166037 0.121904
181 1 0.161912 0.0760862 0.454758
182 1 0.165929 0.258298 0.543549
183 1 0.165466 0.0908953 0.621534
184 1 0.170564 0.240386 0.37756
185 1 0.0180337 0.0237269 0.585867
186 1 0.312173 0.308628 0.411851
187 1 0.0174832 0.143063 0.419207
188 1 0.312066 0.190672 0.577906
189 2 0.262963 0.101276 0.567777
190 2 0.0737355 0.231367 0.428862
191 2 0.260213 0.065203 0.403388
192 2 0.0723274 0.270696 0.600099
193 2 0.07915 0.04213 0.505887
194 2 0.256137 0.288883 0.495646
195 2 0.0750211 0.121287 0.33735
196 2 0.255882 0.210748 0.659805
197 2 0.113504 -0.0012334 0.375497
198 2 0.216693 0.336375 0.62261
199 2 0.11662 0.169359 0.541379
200 2 0.21913 0.163263 0.457442
361 1 0.166194 0.0741263 0.788355
362 1 0.16573 0.257067 0.874587
363 1 0.165445 0.0898842 0.9555
364 1 0.170375 0.24225 0.711166
365 1 0.0197731 0.0248782 0.920149
366 1 0.310951 0.308094 0.743085
367 1 0.020006 0.142232 0.753092
368 1 0.316143 0.190644 0.911086
369 2 0.260889 0.102864 0.900639
370 2 0.0700785 0.231758 0.759819
371 2 0.262881 0.0654962 0.734919
372 2 0.0670492 0.268904 0.927542
373 2 0.0768269 0.0448521 0.837688
374 2 0.260312 0.288019 0.829553
375 2 0.0764662 0.123147 0.669953
376 2 0.253387 0.209655 0.99074
377 2 0.114594 -0.00195849 0.707492
378 2 0.215283 0.334776 0.956553
379 2 0.114611 0.169101 0.87595
380 2 0.213011 0.165337 0.790706
61 1 0.166163 0.407307 0.121898
62 1 0.169043 0.592188 0.210042
63 1 0.168525 0.425263 0.291803
64 1 0.16697 0.574684 0.0438512
65 1 0.0193843 0.360407 0.254555
66 1 0.314977 0.64065 0.0796583
67 1 0.0232185 0.475416 0.0907204
68 1 0.31239 0.524244 0.243301
69 2 0.260394 0.435395 0.235872
70 2 0.0709635 0.565582 0.0978752
71 2 0.261494 0.395894 0.0666664
72 2 0.0734347 0.603647 0.26399
73 2 0.0806241 0.376201 0.173692
74 2 0.254859 0.625679 0.161207
75 2 0.0730603 0.456095 0.00359825
76 2 0.259276 0.548059 0.327809
77 2 0.107284 0.328152 0.0451226
78 2 0.216846 0.668505 0.289656
79 2 0.118062 0.503291 0.212035
80 2 0.216524 0.496924 0.122284
241 1 0.16413 0.407698 0.454621
242 1 0.167819 0.58901 0.542882
243 1 0.165836 0.425559 0.622074
244 1 0.166551 0.57297 0.377574
245 1 0.0181265 0.358516 0.586229
246 1 0.311266 0.640396 0.411012
247 1 0.0186354 0.473762 0.419896
248 1 0.314618 0.523939 0.57818
249 2 0.263164 0.434243 0.567677
250 2 0.0689563 0.562913 0.430644
251 2 0.263969 0.398601 0.404267
252 2 0.0702293 0.603268 0.5956
253 2 0.0770299 0.378661 0.504731
254 2 0.256596 0.623123 0.495056
255 2 0.0728017 0.454911 0.335282
256 2 0.256371 0.543471 0.661071
257 2 0.118869 0.33011 0.376022
258 2 0.215777 0.666995 0.6245
259 2 0.109165 0.502856 0.542211
260 2 0.216942 0.497311 0.457421
421 1 0.16824 0.409827 0.790554
422 1 0.167505 0.591213 0.875011
423 1 0.162677 0.424131 0.95594
424 1 0.167174 0.57604 0.708599
425 1 0.0221022 0.359663 0.922387
426 1 0.316252 0.641663 0.746199
427 1 0.0182902 0.476695 0.753605
428 1 0.315408 0.523219 0.914595
429 2 0.259084 0.435009 0.904074
430 2 0.0702513 0.565851 0.761369
431 2 0.261381 0.396529 0.735045
432 2 0.0733813 0.602142 0.93032
433 2 0.0758915 0.378381 0.836889
434 2 0.254113 0.62626 0.825698
435 2 0.0785595 0.454408 0.673746
436 2 0.253824 0.543484 0.994196
437 2 0.117894 0.331275 0.709193
438 2 0.221323 0.669363 0.957596
439 2 0.115671 0.502405 0.875526
440 2 0.221224 0.498559 0.792025
121 1 0.16393 0.744054 0.122797
122 1 0.168889 0.926207 0.211765
123 1 0.162547 0.757236 0.289716
124 1 0.166763 0.90865 0.0449923
125 1 0.016678 0.691025 0.254873
126 1 0.313941 0.973885 0.0811522
127 1 0.0215195 0.807348 0.0891625
128 1 0.314671 0.85699 0.247669
129 2 0.261174 0.767683 0.237807
130 2 0.0704137 0.896547 0.0993724
131 2 0.26109 0.729344 0.0704301
132 2 0.0715185 0.935046 0.264516
133 2 0.0750634 0.710419 0.172185
134 2 0.254996 0.955635 0.162117
135 2 0.0766284 0.790029 0.00495494
136 2 0.252805 0.875465 0.327566
137 2 0.117907 0.664176 0.0440715
138 2 0.216259 1.00239 0.291309
139 2 0.121462 0.835749 0.209991
140 2 0.223258 0.830585 0.124179
301 1 0.164477 0.741601 0.455395
302 1 0.166515 0.924165 0.543524
303 1 0.167192 0.756832 0.624096
304 1 0.169159 0.910842 0.378479
305 1 0.0211315 0.692558 0.588375
306 1 0.314912 0.976454 0.413556
307 1 0.0215456 0.807745 0.422914
308 1 0.312186 0.858995 0.578773
309 2 0.259672 0.769504 0.567551
310 2 0.0693558 0.897241 0.430133
311 2 0.263085 0.729931 0.40385
312 2 0.0726704 0.934747 0.599625
313 2 0.0808173 0.707504 0.506102
314 2 0.253477 0.958226 0.494665
315 2 0.080545 0.792575 0.340721
316 2 0.255553 0.878503 0.661086
317 2 0.118799 0.663399 0.375345
318 2 0.213825 1.00052 0.624843
319 2 0.119075 0.834512 0.543773
320 2 0.215447 0.830971 0.455982
481 1 0.164118 0.743345 0.789608
482 1 0.168249 0.925843 0.879119
483 1 0.166427 0.757193 0.956324
484 1 0.169687 0.909041 0.712629
485 1 0.0233314 0.692449 0.923136
486 1 0.314113 0.975667 0.746823
487 1 0.0205315 0.810206 0.75547
488 1 0.310655 0.858971 0.911939
489 2 0.262002 0.768228 0.902924
490 2 0.0740253 0.899673 0.765803
491 2 0.262601 0.730095 0.737565
492 2 0.0703173 0.934747 0.930803
493 2 0.0751167 0.710629 0.83743
494 2 0.255039 0.955768 0.82837
495 2 0.0781873 0.790607 0.671952
496 2 0.255477 0.877078 0.996738
497 2 0.114499 0.664469 0.711702
498 2 0.219417 1.00139 0.959729
499 2 0.115775 0.83651 0.877471
500 2 0.219824 0.831724 0.790412
21 1 0.499157 0.0746446 0.122727
22 1 0.501658 0.260347 0.210216
23 1 0.496172 0.0926955 0.287232
24 1 0.502589 0.242039 0.0441928
25 1 0.352568 0.0239877 0.254158
26 1 0.647349 0.309205 0.0775359
27 1 0.351737 0.142111 0.0881535
28 1 0.644277 0.193383 0.245883
29 2 0.595644 0.103627 0.23674
30 2 0.406521 0.230329 0.09696
31 2 0.598116 0.0629455 0.0710544
32 2 0.407173 0.269547 0.265621
33 2 0.410008 0.0438592 0.1715
34 2 0.592279 0.288752 0.160976
35 2 0.40985 0.123292 0.00665754
36 2 0.58732 0.210168 0.32853
37 2 0.443312 -0.00297522 0.0424976
38 2 0.551751 0.334831 0.291919
39 2 0.448633 0.171709 0.209543
40 2 0.550507 0.16459 0.123201
201 1 0.500492 0.0747945 0.459422
202 1 0.501654 0.257901 0.543029
203 1 0.497932 0.093373 0.622806
204 1 0.501687 0.24107 0.379067
205 1 0.352063 0.0228238 0.58976
206 1 0.646317 0.310094 0.412091
207 1 0.355105 0.140426 0.422213
208 1 0.648536 0.192454 0.578597
209 2 0.597764 0.103972 0.57225
210 2 0.402299 0.231033 0.430943
211 2 0.591073 0.0658049 0.401157
212 2 0.406169 0.266121 0.596765
213 2 0.410234 0.0443602 0.507709
214 2 0.591353 0.289049 0.495543
215 2 0.410573 0.121638 0.338588
216 2 0.590539 0.212024 0.660435
217 2 0.450148 -0.00215488 0.376569
218 2 0.544615 0.335087 0.623829
219 2 0.448129 0.170237 0.543519
220 2 0.552557 0.163837 0.457453
381 1 0.497458 0.0759069 0.788347
382 1 0.499674 0.25735 0.877913
383 1 0.499407 0.0915998 0.958927
384 1 0.503893 0.242139 0.711687
385 1 0.352585 0.0240087 0.921054
386 1 0.645226 0.308618 0.745954
387 1 0.353268 0.142266 0.756763
388 1 0.649974 0.191232 0.912368
389 2 0.592029 0.103355 0.903448
390 2 0.405119 0.231706 0.761869
391 2 0.595949 0.0650271 0.735607
392 2 0.403376 0.270101 0.934151
393 2 0.41698 0.0421309 0.842235
394 2 0.586267 0.290875 0.827564
395 2 0.41146 0.125279 0.672906
396 2 0.59028 0.210399 0.993857
397 2 0.451875 -0.00130688 0.710275
398 2 0.549959 0.336283 0.95591
399 2 0.454201 0.167126 0.876709
400 2 0.548872 0.164984 0.791716
81 1 0.503161 0.409449 0.124323
82 1 0.500855 0.593885 0.210109
83 1 0.49977 0.42426 0.288573
84 1 0.498125 0.576082 0.0432409
85 1 0.355808 0.359296 0.253584
86 1 0.648196 0.639137 0.07765
87 1 0.353446 0.473091 0.0883384
88 1 0.648967 0.525416 0.247618
89 2 0.597257 0.435757 0.2375
90 2 0.404151 0.562028 0.0993148
91 2 0.592862 0.397638 0.0651539
92 2 0.404582 0.601884 0.263936
93 2 0.409113 0.378819 0.168938
94 2 0.589987 0.625205 0.160876
95 2 0.413185 0.456096 0.00693746
96 2 0.585474 0.544507 0.325846
97 2 0.448745 0.329866 0.0443339
98 2 0.552793 0.668599 0.291677
99 2 0.452803 0.503382 0.209715
100 2 0.551065 0.500788 0.12502
261 1 0.495171 0.408092 0.454807
262 1 0.50337 0.592741 0.545781
263 1 0.499094 0.426535 0.622636
264 1 0.501542 0.575512 0.378513
265 1 0.356068 0.356301 0.589528
266 1 0.649456 0.641689 0.412596
267 1 0.352216 0.475759 0.418847
268 1 0.646217 0.523517 0.579671
269 2 0.59154 0.434901 0.566277
270 2 0.4061 0.564263 0.433667
271 2 0.593331 0.399608 0.405031
272 2 0.40425 0.602811 0.596697
273 2 0.408655 0.3775 0.505413
274 2 0.585281 0.626451 0.492556
275 2 0.415267 0.457556 0.33948
276 2 0.589589 0.54615 0.662578
277 2 0.447029 0.329548 0.375004
278 2 0.547542 0.667724 0.624851
279 2 0.450683 0.50305 0.540451
280 2 0.554367 0.495401 0.456788
441 1 0.497459 0.409325 0.788706
442 1 0.503708 0.592168 0.877116
443 1 0.497358 0.425142 0.953863
444 1 0.499098 0.574617 0.710308
445 1 0.354034 0.359764 0.921735
446 1 0.648472 0.64303 0.743857
447 1 0.353384 0.474037 0.755334
448 1 0.64561 0.524399 0.91361
449 2 0.594627 0.435406 0.901057
450 2 0.402822 0.562523 0.765233
451 2 0.593935 0.39828 0.735042
452 2 0.404064 0.600908 0.926784
453 2 0.408538 0.376166 0.836927
454 2 0.592411 0.620594 0.826188
455 2 0.407131 0.454475 0.671005
456 2 0.589122 0.543895 0.995739
457 2 0.44951 0.330602 0.711575
458 2 0.549893 0.670146 0.95684
459 2 0.450171 0.503115 0.87587
460 2 0.550792 0.49803 0.791339
141 1 0.498082 0.742822 0.123702
142 1 0.502678 0.925198 0.21071
143 1 0.497819 0.75725 0.289466
144 1 0.503043 0.910789 0.043397
145 1 0.355484 0.691895 0.25776
146 1 0.647334 0.973878 0.0756794
147 1 0.353794 0.807042 0.0874022
148 1 0.647149 0.858553 0.24349
149 2 0.594993 0.769426 0.237716
150 2 0.405233 0.896147 0.0961613
151 2 0.593196 0.727358 0.071349
152 2 0.403975 0.934918 0.262052
153 2 0.405884 0.712742 0.171197
154 2 0.591318 0.955639 0.160694
155 2 0.414761 0.793568 0.00636585
156 2 0.589025 0.875981 0.327006
157 2 0.449761 0.665211 0.0442997
158 2 0.549832 1.00355 0.28828
159 2 0.451221 0.834974 0.209882
160 2 0.549222 0.832202 0.121815
321 1 0.496775 0.743032 0.455745
322 1 0.503075 0.924209 0.543592
323 1 0.499686 0.758309 0.623043
324 1 0.50005 0.908554 0.376176
325 1 0.351357 0.692032 0.587036
326 1 0.646279 0.976651 0.409993
327 1 0.351599 0.808128 0.420758
328 1 0.644874 0.859088 0.577447
329 2 0.596913 0.768723 0.569313
330 2 0.40274 0.897628 0.429762
331 2 0.59529 0.730442 0.403362
332 2 0.407608 0.934611 0.596608
333 2 0.409726 0.71099 0.505302
334 2 0.590401 0.956145 0.493795
335 2 0.409602 0.788881 0.338439
336 2 0.587609 0.877096 0.660991
337 2 0.448375 0.66528 0.379001
338 2 0.542748 1.0013 0.62373
339 2 0.448789 0.83549 0.54302
340 2 0.548904 0.832297 0.45693
501 1 0.499945 0.740478 0.79004
502 1 0.504634 0.922162 0.878687
503 1 0.500366 0.758883 0.957136
504 1 0.500452 0.908535 0.711252
505 1 0.35561 0.691977 0.921537
506 1 0.647127 0.976029 0.744511
507 1 0.35294 0.807971 0.753289
508 1 0.645715 0.859091 0.908738
509 2 0.596175 0.769872 0.903674
510 2 0.403352 0.898142 0.765894
511 2 0.596767 0.732529 0.737022
512 2 0.40626 0.934915 0.929992
513 2 0.413078 0.710219 0.839407
514 2 0.587312 0.957513 0.826392
515 2 0.411143 0.78957 0.672679
516 2 0.593551 0.87688 0.996504
517 2 0.450104 0.664052 0.708551
518 2 0.546903 1.00131 0.955962
519 2 0.443176 0.835635 0.875546
520 2 0.547345 0.831087 0.788106
41 1 0.832064 0.0751477 0.123912
42 1 0.835728 0.25494 0.210018
43 1 0.83181 0.0905194 0.289348
44 1 0.83292 0.240405 0.0434058
45 1 0.68638 0.026284 0.254314
46 1 0.975966 0.307007 0.0784806
47 1 0.687867 0.141398 0.0887203
48 1 0.982172 0.19199 0.24524
49 2 0.92919 0.102789 0.237633
50 2 0.738199 0.231065 0.0981591
51 2 0.926982 0.0641054 0.0702094
52 2 0.741299 0.268948 0.264021
53 2 0.743348 0.0420812 0.171752
54 2 0.922675 0.290102 0.162473
55 2 0.74192 0.120629 0.00574072
56 2 0.921294 0.208577 0.327148
57 2 0.783927 -0.000851792 0.0406099
58 2 0.884106 0.333011 0.291105
59 2 0.776038 0.169046 0.210971
60 2 0.887187 0.162857 0.123318
221 1 0.831414 0.0723289 0.457548
222 1 0.830182 0.256681 0.542799
223 1 0.836429 0.0925115 0.625264
224 1 0.835367 0.241519 0.377089