ITEM: TIMESTEP
0
ITEM: NUMBER OF ATOMS
160
ITEM: BOX BOUNDS xy xz yz pp pp pp
-5.8562340902800001e+00 1.1688800000000002e+01 9.9899337993599998e-16
0.0000000000000000e+00 1.6314800000000002e+01 -5.8562340902800001e+00
0.0000000000000000e+00 1.3816532000000000e+01 1.2774679030219999e-15
ITEM: ATOMS id type xs ys zs
1 1 0.26135 0.09185 0.18075
2 1 0.23865 0.40815 0.31925
3 1 0.26135 0.15815 0.43075
4 1 0.23865 0.34185 0.06925
5 1 0.02005 0.0213 0.3881
6 1 0.47995 0.4787 0.1119
7 1 0.02005 0.2287 0.1381
8 1 0.47995 0.2713 0.3619
9 2 0.38855 0.15215 0.3537
10 2 0.11145 0.34785 0.1463
11 2 0.38855 0.09785 0.1037
12 2 0.11145 0.40215 0.3963
13 2 0.134 0.01415 0.2553
14 2 0.366 0.48585 0.2447
15 2 0.134 0.23585 0.0053
16 2 0.366 0.26415 0.4947
17 2 0.11755 0.02385 0.0636
18 2 0.38245 0.47615 0.4364
19 2 0.11755 0.22615 0.3136
20 2 0.38245 0.27385 0.1864
81 1 0.26135 0.09185 0.68075
82 1 0.23865 0.40815 0.81925
83 1 0.26135 0.15815 0.93075
84 1 0.23865 0.34185 0.56925
85 1 0.02005 0.0213 0.8881
86 1 0.47995 0.4787 0.6119
87 1 0.02005 0.2287 0.6381
88 1 0.47995 0.2713 0.8619
89 2 0.38855 0.15215 0.8537
90 2 0.11145 0.34785 0.6463
91 2 0.38855 0.09785 0.6037
92 2 0.11145 0.40215 0.8963
93 2 0.134 0.01415 0.7553
94 2 0.366 0.48585 0.7447
95 2 0.134 0.23585 0.5053
96 2 0.366 0.26415 0.9947
97 2 0.11755 0.02385 0.5636
98 2 0.38245 0.47615 0.9364
99 2 0.11755 0.22615 0.8136
100 2 0.38245 0.27385 0.6864
41 1 0.26135 0.59185 0.18075
42 1 0.23865 0.90815 0.31925
43 1 0.26135 0.65815 0.43075
44 1 0.23865 0.84185 0.06925
45 1 0.02005 0.5213 0.3881
46 1 0.47995 0.9787 0.1119
47 1 0.02005 0.7287 0.1381
48 1 0.47995 0.7713 0.3619
49 2 0.38855 0.65215 0.3537
50 2 0.11145 0.84785 0.1463
51 2 0.38855 0.59785 0.1037
52 2 0.11145 0.90215 0.3963
53 2 0.134 0.51415 0.2553
54 2 0.366 0.98585 0.2447
55 2 0.134 0.73585 0.0053
56 2 0.366 0.76415 0.4947
57 2 0.11755 0.52385 0.0636
58 2 0.38245 0.97615 0.4364
59 2 0.11755 0.72615 0.3136
60 2 0.38245 0.77385 0.1864
121 1 0.26135 0.59185 0.68075
122 1 0.23865 0.90815 0.81925
123 1 0.26135 0.65815 0.93075
124 1 0.23865 0.84185 0.56925
125 1 0.02005 0.5213 0.8881
126 1 0.47995 0.9787 0.6119
127 1 0.02005 0.7287 0.6381
128 1 0.47995 0.7713 0.8619
129 2 0.38855 0.65215 0.8537
130 2 0.11145 0.84785 0.6463
131 2 0.38855 0.59785 0.6037
132 2 0.11145 0.90215 0.8963
133 2 0.134 0.51415 0.7553
134 2 0.366 0.98585 0.7447
135 2 0.134 0.73585 0.5053
136 2 0.366 0.76415 0.9947
137 2 0.11755 0.52385 0.5636
138 2 0.38245 0.97615 0.9364
139 2 0.11755 0.72615 0.8136
140 2 0.38245 0.77385 0.6864
21 1 0.76135 0.09185 0.18075
22 1 0.73865 0.40815 0.31925
23 1 0.76135 0.15815 0.43075
24 1 0.73865 0.34185 0.06925
25 1 0.52005 0.0213 0.3881
26 1 0.97995 0.4787 0.1119
27 1 0.52005 0.2287 0.1381
28 1 0.97995 0.2713 0.3619
29 2 0.88855 0.15215 0.3537
30 2 0.61145 0.34785 0.1463
31 2 0.88855 0.09785 0.1037
32 2 0.61145 0.40215 0.3963
33 2 0.634 0.01415 0.2553
34 2 0.866 0.48585 0.2447
35 2 0.634 0.23585 0.0053
36 2 0.866 0.26415 0.4947
37 2 0.61755 0.02385 0.0636
38 2 0.88245 0.47615 0.4364
39 2 0.61755 0.22615 0.3136
40 2 0.88245 0.27385 0.1864
101 1 0.76135 0.09185 0.68075
102 1 0.73865 0.40815 0.81925
103 1 0.76135 0.15815 0.93075
104 1 0.73865 0.34185 0.56925
105 1 0.52005 0.0213 0.8881
106 1 0.97995 0.4787 0.6119
107 1 0.52005 0.2287 0.6381
108 1 0.97995 0.2713 0.8619
109 2 0.88855 0.15215 0.8537
110 2 0.61145 0.34785 0.6463
111 2 0.88855 0.09785 0.6037
112 2 0.61145 0.40215 0.8963
113 2 0.634 0.01415 0.7553
114 2 0.866 0.48585 0.7447
115 2 0.634 0.23585 0.5053
116 2 0.866 0.26415 0.9947
117 2 0.61755 0.02385 0.5636
118 2 0.88245 0.47615 0.9364
119 2 0.61755 0.22615 0.8136
120 2 0.88245 0.27385 0.6864
61 1 0.76135 0.59185 0.18075
62 1 0.73865 0.90815 0.31925
63 1 0.76135 0.65815 0.43075
64 1 0.73865 0.84185 0.06925
65 1 0.52005 0.5213 0.3881
66 1 0.97995 0.9787 0.1119
67 1 0.52005 0.7287 0.1381
68 1 0.97995 0.7713 0.3619
69 2 0.88855 0.65215 0.3537
70 2 0.61145 0.84785 0.1463
71 2 0.88855 0.59785 0.1037
72 2 0.61145 0.90215 0.3963
73 2 0.634 0.51415 0.2553
74 2 0.866 0.98585 0.2447
75 2 0.634 0.73585 0.0053
76 2 0.866 0.76415 0.4947
77 2 0.61755 0.52385 0.0636
78 2 0.88245 0.97615 0.4364
79 2 0.61755 0.72615 0.3136
80 2 0.88245 0.77385 0.1864
141 1 0.76135 0.59185 0.68075
142 1 0.73865 0.90815 0.81925
143 1 0.76135 0.65815 0.93075
144 1 0.73865 0.84185 0.56925
145 1 0.52005 0.5213 0.8881
146 1 0.97995 0.9787 0.6119
147 1 0.52005 0.7287 0.6381
148 1 0.97995 0.7713 0.8619
149 2 0.88855 0.65215 0.8537
150 2 0.61145 0.84785 0.6463
151 2 0.88855 0.59785 0.6037
152 2 0.61145 0.90215 0.8963
153 2 0.634 0.51415 0.7553
154 2 0.866 0.98585 0.7447
155 2 0.634 0.73585 0.5053
156 2 0.866 0.76415 0.9947
157 2 0.61755 0.52385 0.5636
158 2 0.88245 0.97615 0.9364
159 2 0.61755 0.72615 0.8136
160 2 0.88245 0.77385 0.6864
